2
* (null), Energy   -1000.0000000
O     0.565287    0.000000    0.000000    1.200752    0.000000    0.000000
C    -0.565287    0.000000    0.000000   -1.599436    0.000000    0.000000
2
* Frequency(5) 2242.0938
O     0.701746    0.000000    0.000000    1.200752    0.000000    0.000000
C    -0.747055    0.000000    0.000000   -1.599436    0.000000    0.000000
2
* Frequency(5) 2242.0938
O     0.823418    0.000000    0.000000    1.200752    0.000000    0.000000
C    -0.909125    0.000000    0.000000   -1.599436    0.000000    0.000000
2
* Frequency(5) 2242.0938
O     0.917117    0.000000    0.000000    1.200752    0.000000    0.000000
C    -1.033935    0.000000    0.000000   -1.599436    0.000000    0.000000
2
* Frequency(5) 2242.0938
O     0.972690    0.000000    0.000000    1.200752    0.000000    0.000000
C    -1.107960    0.000000    0.000000   -1.599436    0.000000    0.000000
2
* Frequency(5) 2242.0938
O     0.984115    0.000000    0.000000    1.200752    0.000000    0.000000
C    -1.123177    0.000000    0.000000   -1.599436    0.000000    0.000000
2
* Frequency(5) 2242.0938
O     0.950153    0.000000    0.000000    1.200752    0.000000    0.000000
C    -1.077939    0.000000    0.000000   -1.599436    0.000000    0.000000
2
* Frequency(5) 2242.0938
O     0.874485    0.000000    0.000000    1.200752    0.000000    0.000000
C    -0.977147    0.000000    0.000000   -1.599436    0.000000    0.000000
2
* Frequency(5) 2242.0938
O     0.765310    0.000000    0.000000    1.200752    0.000000    0.000000
C    -0.831723    0.000000    0.000000   -1.599436    0.000000    0.000000
2
* Frequency(5) 2242.0938
O     0.634460    0.000000    0.000000    1.200752    0.000000    0.000000
C    -0.657427    0.000000    0.000000   -1.599436    0.000000    0.000000
2
* Frequency(5) 2242.0938
O     0.496114    0.000000    0.000000    1.200752    0.000000    0.000000
C    -0.473146    0.000000    0.000000   -1.599436    0.000000    0.000000
2
* Frequency(5) 2242.0938
O     0.365264    0.000000    0.000000    1.200752    0.000000    0.000000
C    -0.298850    0.000000    0.000000   -1.599436    0.000000    0.000000
2
* Frequency(5) 2242.0938
O     0.256089    0.000000    0.000000    1.200752    0.000000    0.000000
C    -0.153427    0.000000    0.000000   -1.599436    0.000000    0.000000
2
* Frequency(5) 2242.0938
O     0.180421    0.000000    0.000000    1.200752    0.000000    0.000000
C    -0.052635    0.000000    0.000000   -1.599436    0.000000    0.000000
2
* Frequency(5) 2242.0938
O     0.146459    0.000000    0.000000    1.200752    0.000000    0.000000
C    -0.007396    0.000000    0.000000   -1.599436    0.000000    0.000000
2
* Frequency(5) 2242.0938
O     0.157884    0.000000    0.000000    1.200752    0.000000    0.000000
C    -0.022614    0.000000    0.000000   -1.599436    0.000000    0.000000
2
* Frequency(5) 2242.0938
O     0.213457    0.000000    0.000000    1.200752    0.000000    0.000000
C    -0.096639    0.000000    0.000000   -1.599436    0.000000    0.000000
2
* Frequency(5) 2242.0938
O     0.307156    0.000000    0.000000    1.200752    0.000000    0.000000
C    -0.221449    0.000000    0.000000   -1.599436    0.000000    0.000000
2
* Frequency(5) 2242.0938
O     0.428828    0.000000    0.000000    1.200752    0.000000    0.000000
C    -0.383519    0.000000    0.000000   -1.599436    0.000000    0.000000
2
* Frequency(5) 2242.0938
O     0.565287    0.000000    0.000000    1.200752    0.000000    0.000000
C    -0.565287    0.000000    0.000000   -1.599436    0.000000    0.000000
