5
* (null), Energy   -1000.0000000
O    -1.177047    0.172473    0.000040    0.398311    0.134799   -0.000017
O     1.077671    0.227064   -0.000011   -0.480204    0.238430   -0.000008
C     0.043163   -0.379045    0.000058   -0.051225   -0.456795    0.000035
H    -0.048995   -1.486485    0.000150    0.153331   -0.462655    0.000031
H    -1.060192    1.140592   -0.000037    1.756859   -0.018230   -0.000054
5
* Frequency(6)  636.9340
O    -1.131781    0.187793    0.000038    0.398311    0.134799   -0.000017
O     1.023098    0.254161   -0.000012   -0.480204    0.238430   -0.000008
C     0.037341   -0.430957    0.000062   -0.051225   -0.456795    0.000035
H    -0.031570   -1.539064    0.000154    0.153331   -0.462655    0.000031
H    -0.860534    1.138520   -0.000043    1.756859   -0.018230   -0.000054
5
* Frequency(7)  702.2061
O    -1.177047    0.172472   -0.021442   -0.000001   -0.000015   -0.189023
O     1.077671    0.227064   -0.010265   -0.000003   -0.000006   -0.090226
C     0.043163   -0.379043    0.020100    0.000000    0.000013    0.176359
H    -0.048993   -1.486482    0.044246    0.000015    0.000030    0.388015
H    -1.060187    1.140609    0.220752    0.000042    0.000149    1.942800
5
* Frequency(8) 1052.9546
O    -1.177048    0.172474    0.008155   -0.000008    0.000008    0.071411
O     1.077672    0.227066    0.012894    0.000004    0.000010    0.113558
C     0.043163   -0.379049   -0.048964    0.000001   -0.000040   -0.431359
H    -0.048991   -1.486468    0.219344    0.000031    0.000151    1.928760
H    -1.060189    1.140595    0.031255    0.000025    0.000023    0.275352
5
* Frequency(9) 1157.0833
O    -1.238852    0.189245    0.000039   -0.543842    0.147582   -0.000003
O     1.100248    0.235605   -0.000012    0.198659    0.075149   -0.000013
C     0.071186   -0.409302    0.000061    0.246591   -0.266245    0.000028
H     0.060865   -1.520695    0.000145    0.966695   -0.301022   -0.000045
H    -0.881342    1.133582   -0.000040    1.573763   -0.061688   -0.000024
5
* Frequency(10) 1313.9916
O    -1.172653    0.146517    0.000042    0.038665   -0.228402    0.000018
O     1.083946    0.217448   -0.000010    0.055212   -0.084616    0.000007
C     0.009512   -0.331937    0.000054   -0.296102    0.414513   -0.000030
H    -0.024802   -1.440898    0.000148    0.212879    0.401142   -0.000022
H    -0.852749    1.098303   -0.000038    1.825357   -0.372116   -0.000011
5
* Frequency(11) 1405.4778
O    -1.170877    0.179704    0.000039    0.054290    0.063626   -0.000005
O     1.066154    0.213429   -0.000009   -0.101339   -0.119987    0.000013
C     0.035989   -0.370977    0.000057   -0.063123    0.070993   -0.000008
H     0.171176   -1.492711    0.000148    1.937364   -0.054782   -0.000022
H    -1.110019    1.152345   -0.000038   -0.438450    0.103420   -0.000004
5
* Frequency(12) 1873.5475
O    -1.192097    0.169426    0.000040   -0.132425   -0.026811    0.000002
O     0.991894    0.176367   -0.000005   -0.754785   -0.446104    0.000048
C     0.177200   -0.314613    0.000051    1.179444    0.566956   -0.000059
H    -0.118186   -1.390372    0.000141   -0.608839    0.845735   -0.000085
H    -0.987826    1.129762   -0.000036    0.636770   -0.095294    0.000010
5
* Frequency(13) 3035.2015
O    -1.177251    0.172238    0.000040   -0.001797   -0.002074    0.000000
O     1.076876    0.226454   -0.000011   -0.006996   -0.005368    0.000000
C     0.045500   -0.359289    0.000056    0.020566    0.173841   -0.000014
H    -0.063733   -1.712370    0.000169   -0.129689   -1.987634    0.000163
H    -1.057444    1.144492   -0.000037    0.024180    0.034315   -0.000003
5
* Frequency(14) 3713.8117
O    -1.178312    0.158676    0.000041   -0.011130   -0.121405    0.000009
O     1.077491    0.227089   -0.000011   -0.001584    0.000220   -0.000000
C     0.043259   -0.379943    0.000058    0.000852   -0.007909    0.000001
H    -0.048156   -1.483055    0.000150    0.007379    0.030185   -0.000004
H    -1.039250    1.366461   -0.000055    0.184275    1.987498   -0.000156
5
* Frequency(6)  636.9340
O    -1.199993    0.164708    0.000041    0.398311    0.134799   -0.000017
O     1.105335    0.213329   -0.000010   -0.480204    0.238430   -0.000008
C     0.046114   -0.352730    0.000056   -0.051225   -0.456795    0.000035
H    -0.057828   -1.459833    0.000148    0.153331   -0.462655    0.000031
H    -1.161401    1.141642   -0.000034    1.756859   -0.018230   -0.000054
5
* Frequency(6)  636.9340
O    -1.243398    0.150018    0.000043    0.398311    0.134799   -0.000017
O     1.157664    0.187346   -0.000010   -0.480204    0.238430   -0.000008
C     0.051696   -0.302951    0.000052   -0.051225   -0.456795    0.000035
H    -0.074537   -1.409415    0.000145    0.153331   -0.462655    0.000031
H    -1.352852    1.143629   -0.000028    1.756859   -0.018230   -0.000054
5
* Frequency(6)  636.9340
O    -1.279614    0.137762    0.000044    0.398311    0.134799   -0.000017
O     1.201325    0.165668   -0.000009   -0.480204    0.238430   -0.000008
C     0.056353   -0.261418    0.000049   -0.051225   -0.456795    0.000035
H    -0.088478   -1.367350    0.000142    0.153331   -0.462655    0.000031
H    -1.512589    1.145286   -0.000023    1.756859   -0.018230   -0.000054
5
* Frequency(6)  636.9340
O    -1.304714    0.129267    0.000045    0.398311    0.134799   -0.000017
O     1.231586    0.150643   -0.000008   -0.480204    0.238430   -0.000008
C     0.059581   -0.232632    0.000047   -0.051225   -0.456795    0.000035
H    -0.098141   -1.338195    0.000140    0.153331   -0.462655    0.000031
H    -1.623301    1.146435   -0.000020    1.756859   -0.018230   -0.000054
5
* Frequency(6)  636.9340
O    -1.315980    0.125455    0.000046    0.398311    0.134799   -0.000017
O     1.245168    0.143899   -0.000008   -0.480204    0.238430   -0.000008
C     0.061030   -0.219713    0.000046   -0.051225   -0.456795    0.000035
H    -0.102478   -1.325109    0.000139    0.153331   -0.462655    0.000031
H    -1.672992    1.146951   -0.000018    1.756859   -0.018230   -0.000054
5
* Frequency(6)  636.9340
O    -1.312190    0.126737    0.000046    0.398311    0.134799   -0.000017
O     1.240599    0.146167   -0.000008   -0.480204    0.238430   -0.000008
C     0.060543   -0.224059    0.000046   -0.051225   -0.456795    0.000035
H    -0.101019   -1.329511    0.000140    0.153331   -0.462655    0.000031
H    -1.656277    1.146777   -0.000019    1.756859   -0.018230   -0.000054
5
* Frequency(6)  636.9340
O    -1.293756    0.132976    0.000045    0.398311    0.134799   -0.000017
O     1.218375    0.157202   -0.000009   -0.480204    0.238430   -0.000008
C     0.058172   -0.245200    0.000048   -0.051225   -0.456795    0.000035
H    -0.093922   -1.350924    0.000141    0.153331   -0.462655    0.000031
H    -1.574966    1.145934   -0.000021    1.756859   -0.018230   -0.000054
5
* Frequency(6)  636.9340
O    -1.262674    0.143495    0.000044    0.398311    0.134799   -0.000017
O     1.180903    0.175808   -0.000009   -0.480204    0.238430   -0.000008
C     0.054175   -0.280845    0.000050   -0.051225   -0.456795    0.000035
H    -0.081957   -1.387026    0.000144    0.153331   -0.462655    0.000031
H    -1.437872    1.144511   -0.000026    1.756859   -0.018230   -0.000054
5
* Frequency(6)  636.9340
O    -1.222313    0.157154    0.000042    0.398311    0.134799   -0.000017
O     1.132244    0.199968   -0.000010   -0.480204    0.238430   -0.000008
C     0.048984   -0.327132    0.000054   -0.051225   -0.456795    0.000035
H    -0.066420   -1.433907    0.000147    0.153331   -0.462655    0.000031
H    -1.259850    1.142664   -0.000031    1.756859   -0.018230   -0.000054
5
* Frequency(6)  636.9340
O    -1.177047    0.172473    0.000040    0.398311    0.134799   -0.000017
O     1.077671    0.227064   -0.000011   -0.480204    0.238430   -0.000008
C     0.043163   -0.379045    0.000058   -0.051225   -0.456795    0.000035
H    -0.048995   -1.486485    0.000150    0.153331   -0.462655    0.000031
H    -1.060192    1.140592   -0.000037    1.756859   -0.018230   -0.000054
