5
* (null), Energy   -1000.0000000
C    -0.716151    1.124601   -0.000035    0.020559   -0.032592   -0.245388
H     0.383670    1.124540    0.000222    0.015850    0.158897    1.192381
H    -1.084696    0.211577   -0.489434   -0.342630   -0.449555    0.868456
H    -1.084600    2.004320   -0.546610   -0.265961    0.561953    0.943251
H    -1.084343    1.157462    1.035857    0.347768    0.117064   -0.080131
5
* Frequency(6) 1311.6526
C    -0.713815    1.120897   -0.027922    0.020559   -0.032592   -0.245388
H     0.385472    1.142598    0.135730    0.015850    0.158897    1.192381
H    -1.123634    0.160487   -0.390738   -0.342630   -0.449555    0.868456
H    -1.114825    2.068183   -0.439415   -0.265961    0.561953    0.943251
H    -1.044821    1.170766    1.026750    0.347768    0.117064   -0.080131
5
* Frequency(11) 3019.0924
C    -0.715975    1.124493    0.000210    0.001552   -0.000953    0.002150
H     0.267951    1.124534    0.000242   -1.018254   -0.000050    0.000176
H    -1.046883    0.305193   -0.439254    0.332724    0.823765    0.441551
H    -1.047366    1.915455   -0.491422    0.327637   -0.781954    0.485618
H    -1.045772    1.154006    0.927557    0.339404   -0.030411   -0.952967
5
* Frequency(6) 1311.6526
C    -0.710127    1.115051   -0.071935    0.020559   -0.032592   -0.245388
H     0.388315    1.171098    0.349600    0.015850    0.158897    1.192381
H    -1.185089    0.079853   -0.234969   -0.342630   -0.449555    0.868456
H    -1.162529    2.168977   -0.270230   -0.265961    0.561953    0.943251
H    -0.982444    1.191763    1.012378    0.347768    0.117064   -0.080131
5
* Frequency(6) 1311.6526
C    -0.709176    1.113543   -0.083292    0.020559   -0.032592   -0.245388
H     0.389048    1.178452    0.404785    0.015850    0.158897    1.192381
H    -1.200947    0.059047   -0.194775   -0.342630   -0.449555    0.868456
H    -1.174838    2.194985   -0.226575   -0.265961    0.561953    0.943251
H    -0.966349    1.197181    1.008669    0.347768    0.117064   -0.080131
5
* Frequency(6) 1311.6526
C    -0.708980    1.113233   -0.085627    0.020559   -0.032592   -0.245388
H     0.389199    1.179964    0.416130    0.015850    0.158897    1.192381
H    -1.204207    0.054770   -0.186512   -0.342630   -0.449555    0.868456
H    -1.177369    2.200331   -0.217600   -0.265961    0.561953    0.943251
H    -0.963040    1.198295    1.007907    0.347768    0.117064   -0.080131
5
* Frequency(6) 1311.6526
C    -0.709561    1.114155   -0.078687    0.020559   -0.032592   -0.245388
H     0.388751    1.175470    0.382405    0.015850    0.158897    1.192381
H    -1.194516    0.067485   -0.211076   -0.342630   -0.449555    0.868456
H    -1.169846    2.184437   -0.244279   -0.265961    0.561953    0.943251
H    -0.972876    1.194984    1.010173    0.347768    0.117064   -0.080131
5
* Frequency(6) 1311.6526
C    -0.710857    1.116209   -0.063223    0.020559   -0.032592   -0.245388
H     0.387752    1.165456    0.307264    0.015850    0.158897    1.192381
H    -1.172924    0.095815   -0.265803   -0.342630   -0.449555    0.868456
H    -1.153086    2.149024   -0.303720   -0.265961    0.561953    0.943251
H    -0.994792    1.187607    1.015223    0.347768    0.117064   -0.080131
5
* Frequency(6) 1311.6526
C    -0.712726    1.119172   -0.040912    0.020559   -0.032592   -0.245388
H     0.386311    1.151009    0.198851    0.015850    0.158897    1.192381
H    -1.141772    0.136689   -0.344765   -0.342630   -0.449555    0.868456
H    -1.128905    2.097931   -0.389482   -0.265961    0.561953    0.943251
H    -1.026412    1.176963    1.022509    0.347768    0.117064   -0.080131
5
* Frequency(6) 1311.6526
C    -0.714967    1.122724   -0.014171    0.020559   -0.032592   -0.245388
H     0.384583    1.133694    0.068913    0.015850    0.158897    1.192381
H    -1.104434    0.185679   -0.439404   -0.342630   -0.449555    0.868456
H    -1.099922    2.036693   -0.492272   -0.265961    0.561953    0.943251
H    -1.064309    1.164206    1.031241    0.347768    0.117064   -0.080131
5
* Frequency(6) 1311.6526
C    -0.717335    1.126479    0.014102    0.020559   -0.032592   -0.245388
H     0.382757    1.115386   -0.068469    0.015850    0.158897    1.192381
H    -1.064957    0.237475   -0.539464   -0.342630   -0.449555    0.868456
H    -1.069279    1.971947   -0.600949   -0.265961    0.561953    0.943251
H    -1.104378    1.150719    1.040473    0.347768    0.117064   -0.080131
5
* Frequency(6) 1311.6526
C    -0.719576    1.130031    0.040842    0.020559   -0.032592   -0.245388
H     0.381030    1.098071   -0.198407    0.015850    0.158897    1.192381
H    -1.027620    0.286464   -0.634102   -0.342630   -0.449555    0.868456
H    -1.040296    1.910709   -0.703739   -0.265961    0.561953    0.943251
H    -1.142275    1.137962    1.049205    0.347768    0.117064   -0.080131
5
* Frequency(6) 1311.6526
C    -0.721445    1.132994    0.063153    0.020559   -0.032592   -0.245388
H     0.379589    1.083624   -0.306820    0.015850    0.158897    1.192381
H    -0.996467    0.327338   -0.713064   -0.342630   -0.449555    0.868456
H    -1.016114    1.859615   -0.789501   -0.265961    0.561953    0.943251
H    -1.173895    1.127318    1.056491    0.347768    0.117064   -0.080131
5
* Frequency(6) 1311.6526
C    -0.722741    1.135048    0.078617    0.020559   -0.032592   -0.245388
H     0.378590    1.073610   -0.381961    0.015850    0.158897    1.192381
H    -0.974876    0.355668   -0.767792   -0.342630   -0.449555    0.868456
H    -0.999354    1.824202   -0.848942   -0.265961    0.561953    0.943251
H    -1.195810    1.119941    1.061540    0.347768    0.117064   -0.080131
5
* Frequency(6) 1311.6526
C    -0.723322    1.135970    0.085558    0.020559   -0.032592   -0.245388
H     0.378142    1.069116   -0.415686    0.015850    0.158897    1.192381
H    -0.965185    0.368383   -0.792355   -0.342630   -0.449555    0.868456
H    -0.991832    1.808308   -0.875621   -0.265961    0.561953    0.943251
H    -1.205646    1.116630    1.063807    0.347768    0.117064   -0.080131
5
* Frequency(6) 1311.6526
C    -0.723126    1.135660    0.083223    0.020559   -0.032592   -0.245388
H     0.378293    1.070628   -0.404341    0.015850    0.158897    1.192381
H    -0.968445    0.364106   -0.784092   -0.342630   -0.449555    0.868456
H    -0.994362    1.813655   -0.866646   -0.265961    0.561953    0.943251
H    -1.202338    1.117744    1.063044    0.347768    0.117064   -0.080131
5
* Frequency(6) 1311.6526
C    -0.722175    1.134151    0.071866    0.020559   -0.032592   -0.245388
H     0.379026    1.077982   -0.349156    0.015850    0.158897    1.192381
H    -0.984302    0.343300   -0.743898   -0.342630   -0.449555    0.868456
H    -1.006672    1.839663   -0.822991   -0.265961    0.561953    0.943251
H    -1.186242    1.123162    1.059336    0.347768    0.117064   -0.080131
5
* Frequency(6) 1311.6526
C    -0.720571    1.131608    0.052717    0.020559   -0.032592   -0.245388
H     0.380263    1.090381   -0.256109    0.015850    0.158897    1.192381
H    -1.011039    0.308219   -0.676129   -0.342630   -0.449555    0.868456
H    -1.027425    1.883514   -0.749385   -0.265961    0.561953    0.943251
H    -1.159105    1.132297    1.053083    0.347768    0.117064   -0.080131
5
* Frequency(6) 1311.6526
C    -0.718487    1.128305    0.027852    0.020559   -0.032592   -0.245388
H     0.381869    1.106482   -0.135286    0.015850    0.158897    1.192381
H    -1.045758    0.262666   -0.588129   -0.342630   -0.449555    0.868456
H    -1.054375    1.940457   -0.653806   -0.265961    0.561953    0.943251
H    -1.123865    1.144159    1.044963    0.347768    0.117064   -0.080131
5
* Frequency(6) 1311.6526
C    -0.716151    1.124601   -0.000035    0.020559   -0.032592   -0.245388
H     0.383670    1.124540    0.000222    0.015850    0.158897    1.192381
H    -1.084696    0.211577   -0.489434   -0.342630   -0.449555    0.868456
H    -1.084600    2.004320   -0.546610   -0.265961    0.561953    0.943251
H    -1.084343    1.157462    1.035857    0.347768    0.117064   -0.080131
