5
* (null), Energy   -1000.0000000
O    -1.177047    0.172473    0.000040   -0.543842    0.147582   -0.000003
O     1.077671    0.227064   -0.000011    0.198659    0.075149   -0.000013
C     0.043163   -0.379045    0.000058    0.246591   -0.266245    0.000028
H    -0.048995   -1.486485    0.000150    0.966695   -0.301022   -0.000045
H    -1.060192    1.140592   -0.000037    1.573763   -0.061688   -0.000024
5
* Frequency(9) 1157.0833
O    -1.238852    0.189245    0.000039   -0.543842    0.147582   -0.000003
O     1.100248    0.235605   -0.000012    0.198659    0.075149   -0.000013
C     0.071186   -0.409302    0.000061    0.246591   -0.266245    0.000028
H     0.060865   -1.520695    0.000145    0.966695   -0.301022   -0.000045
H    -0.881342    1.133582   -0.000040    1.573763   -0.061688   -0.000024
5
* Frequency(9) 1157.0833
O    -1.293959    0.204200    0.000039   -0.543842    0.147582   -0.000003
O     1.120378    0.243220   -0.000014    0.198659    0.075149   -0.000013
C     0.096173   -0.436280    0.000064    0.246591   -0.266245    0.000028
H     0.158820   -1.551197    0.000141    0.966695   -0.301022   -0.000045
H    -0.721873    1.127331   -0.000042    1.573763   -0.061688   -0.000024
5
* Frequency(9) 1157.0833
O    -1.336397    0.215716    0.000039   -0.543842    0.147582   -0.000003
O     1.135880    0.249084   -0.000015    0.198659    0.075149   -0.000013
C     0.115416   -0.457056    0.000066    0.246591   -0.266245    0.000028
H     0.234255   -1.574687    0.000137    0.966695   -0.301022   -0.000045
H    -0.599066    1.122517   -0.000044    1.573763   -0.061688   -0.000024
5
* Frequency(9) 1157.0833
O    -1.361567    0.222546    0.000039   -0.543842    0.147582   -0.000003
O     1.145074    0.252562   -0.000015    0.198659    0.075149   -0.000013
C     0.126828   -0.469379    0.000067    0.246591   -0.266245    0.000028
H     0.278995   -1.588619    0.000135    0.966695   -0.301022   -0.000045
H    -0.526229    1.119662   -0.000045    1.573763   -0.061688   -0.000024
5
* Frequency(9) 1157.0833
O    -1.366742    0.223950    0.000039   -0.543842    0.147582   -0.000003
O     1.146964    0.253277   -0.000016    0.198659    0.075149   -0.000013
C     0.129175   -0.471912    0.000068    0.246591   -0.266245    0.000028
H     0.288193   -1.591483    0.000135    0.966695   -0.301022   -0.000045
H    -0.511256    1.119075   -0.000046    1.573763   -0.061688   -0.000024
5
* Frequency(9) 1157.0833
O    -1.351360    0.219776    0.000039   -0.543842    0.147582   -0.000003
O     1.141345    0.251151   -0.000015    0.198659    0.075149   -0.000013
C     0.122200   -0.464382    0.000067    0.246591   -0.266245    0.000028
H     0.260851   -1.582969    0.000136    0.966695   -0.301022   -0.000045
H    -0.555768    1.120820   -0.000045    1.573763   -0.061688   -0.000024
5
* Frequency(9) 1157.0833
O    -1.317088    0.210476    0.000039   -0.543842    0.147582   -0.000003
O     1.128826    0.246416   -0.000014    0.198659    0.075149   -0.000013
C     0.106661   -0.447603    0.000065    0.246591   -0.266245    0.000028
H     0.199932   -1.563999    0.000139    0.966695   -0.301022   -0.000045
H    -0.654942    1.124707   -0.000043    1.573763   -0.061688   -0.000024
5
* Frequency(9) 1157.0833
O    -1.267641    0.197058    0.000039   -0.543842    0.147582   -0.000003
O     1.110764    0.239583   -0.000013    0.198659    0.075149   -0.000013
C     0.084240   -0.423396    0.000063    0.246591   -0.266245    0.000028
H     0.112039   -1.536630    0.000143    0.966695   -0.301022   -0.000045
H    -0.798032    1.130316   -0.000041    1.573763   -0.061688   -0.000024
5
* Frequency(9) 1157.0833
O    -1.208377    0.180975    0.000040   -0.543842    0.147582   -0.000003
O     1.089115    0.231394   -0.000012    0.198659    0.075149   -0.000013
C     0.057368   -0.394382    0.000060    0.246591   -0.266245    0.000028
H     0.006695   -1.503827    0.000148    0.966695   -0.301022   -0.000045
H    -0.969530    1.137038   -0.000039    1.573763   -0.061688   -0.000024
5
* Frequency(9) 1157.0833
O    -1.145717    0.163971    0.000040   -0.543842    0.147582   -0.000003
O     1.066227    0.222735   -0.000010    0.198659    0.075149   -0.000013
C     0.028957   -0.363707    0.000056    0.246591   -0.266245    0.000028
H    -0.104684   -1.469144    0.000153    0.966695   -0.301022   -0.000045
H    -1.150853    1.144146   -0.000036    1.573763   -0.061688   -0.000024
5
* Frequency(9) 1157.0833
O    -1.086453    0.147889    0.000040   -0.543842    0.147582   -0.000003
O     1.044578    0.214546   -0.000009    0.198659    0.075149   -0.000013
C     0.002085   -0.334693    0.000053    0.246591   -0.266245    0.000028
H    -0.210028   -1.436341    0.000158    0.966695   -0.301022   -0.000045
H    -1.322352    1.150868   -0.000033    1.573763   -0.061688   -0.000024
5
* Frequency(9) 1157.0833
O    -1.037006    0.134470    0.000041   -0.543842    0.147582   -0.000003
O     1.026516    0.207713   -0.000007    0.198659    0.075149   -0.000013
C    -0.020335   -0.310486    0.000051    0.246591   -0.266245    0.000028
H    -0.297922   -1.408971    0.000162    0.966695   -0.301022   -0.000045
H    -1.465441    1.156477   -0.000031    1.573763   -0.061688   -0.000024
5
* Frequency(9) 1157.0833
O    -1.002735    0.125170    0.000041   -0.543842    0.147582   -0.000003
O     1.013997    0.202978   -0.000007    0.198659    0.075149   -0.000013
C    -0.035875   -0.293708    0.000049    0.246591   -0.266245    0.000028
H    -0.358841   -1.390002    0.000165    0.966695   -0.301022   -0.000045
H    -1.564615    1.160364   -0.000029    1.573763   -0.061688   -0.000024
5
* Frequency(9) 1157.0833
O    -0.987353    0.120996    0.000041   -0.543842    0.147582   -0.000003
O     1.008378    0.200852   -0.000006    0.198659    0.075149   -0.000013
C    -0.042849   -0.286177    0.000048    0.246591   -0.266245    0.000028
H    -0.386183   -1.381488    0.000166    0.966695   -0.301022   -0.000045
H    -1.609127    1.162109   -0.000029    1.573763   -0.061688   -0.000024
5
* Frequency(9) 1157.0833
O    -0.992527    0.122400    0.000041   -0.543842    0.147582   -0.000003
O     1.010268    0.201567   -0.000006    0.198659    0.075149   -0.000013
C    -0.040503   -0.288711    0.000048    0.246591   -0.266245    0.000028
H    -0.376985   -1.384352    0.000165    0.966695   -0.301022   -0.000045
H    -1.594154    1.161522   -0.000029    1.573763   -0.061688   -0.000024
5
* Frequency(9) 1157.0833
O    -1.017697    0.129231    0.000041   -0.543842    0.147582   -0.000003
O     1.019462    0.205045   -0.000007    0.198659    0.075149   -0.000013
C    -0.029091   -0.301033    0.000050    0.246591   -0.266245    0.000028
H    -0.332245   -1.398283    0.000163    0.966695   -0.301022   -0.000045
H    -1.521317    1.158667   -0.000030    1.573763   -0.061688   -0.000024
5
* Frequency(9) 1157.0833
O    -1.060135    0.140747    0.000041   -0.543842    0.147582   -0.000003
O     1.034965    0.210909   -0.000008    0.198659    0.075149   -0.000013
C    -0.009848   -0.321809    0.000052    0.246591   -0.266245    0.000028
H    -0.256810   -1.421773    0.000160    0.966695   -0.301022   -0.000045
H    -1.398511    1.153853   -0.000032    1.573763   -0.061688   -0.000024
5
* Frequency(9) 1157.0833
O    -1.115242    0.155701    0.000040   -0.543842    0.147582   -0.000003
O     1.055095    0.218524   -0.000009    0.198659    0.075149   -0.000013
C     0.015139   -0.348787    0.000055    0.246591   -0.266245    0.000028
H    -0.158855   -1.452276    0.000155    0.966695   -0.301022   -0.000045
H    -1.239042    1.147603   -0.000034    1.573763   -0.061688   -0.000024
5
* Frequency(9) 1157.0833
O    -1.177047    0.172473    0.000040   -0.543842    0.147582   -0.000003
O     1.077671    0.227064   -0.000011    0.198659    0.075149   -0.000013
C     0.043163   -0.379045    0.000058    0.246591   -0.266245    0.000028
H    -0.048995   -1.486485    0.000150    0.966695   -0.301022   -0.000045
H    -1.060192    1.140592   -0.000037    1.573763   -0.061688   -0.000024
