5
* (null), Energy   -1000.0000000
O    -1.177047    0.172473    0.000040    0.054290    0.063626   -0.000005
O     1.077671    0.227064   -0.000011   -0.101339   -0.119987    0.000013
C     0.043163   -0.379045    0.000058   -0.063123    0.070993   -0.000008
H    -0.048995   -1.486485    0.000150    1.937364   -0.054782   -0.000022
H    -1.060192    1.140592   -0.000037   -0.438450    0.103420   -0.000004
5
* Frequency(11) 1405.4778
O    -1.170877    0.179704    0.000039    0.054290    0.063626   -0.000005
O     1.066154    0.213429   -0.000009   -0.101339   -0.119987    0.000013
C     0.035989   -0.370977    0.000057   -0.063123    0.070993   -0.000008
H     0.171176   -1.492711    0.000148    1.937364   -0.054782   -0.000022
H    -1.110019    1.152345   -0.000038   -0.438450    0.103420   -0.000004
5
* Frequency(11) 1405.4778
O    -1.165376    0.186151    0.000039    0.054290    0.063626   -0.000005
O     1.055886    0.201270   -0.000008   -0.101339   -0.119987    0.000013
C     0.029593   -0.363783    0.000056   -0.063123    0.070993   -0.000008
H     0.367489   -1.498262    0.000145    1.937364   -0.054782   -0.000022
H    -1.154447    1.162825   -0.000038   -0.438450    0.103420   -0.000004
5
* Frequency(11) 1405.4778
O    -1.161140    0.191116    0.000038    0.054290    0.063626   -0.000005
O     1.047978    0.191907   -0.000007   -0.101339   -0.119987    0.000013
C     0.024667   -0.358243    0.000055   -0.063123    0.070993   -0.000008
H     0.518669   -1.502537    0.000144    1.937364   -0.054782   -0.000022
H    -1.188661    1.170895   -0.000038   -0.438450    0.103420   -0.000004
5
* Frequency(11) 1405.4778
O    -1.158627    0.194061    0.000038    0.054290    0.063626   -0.000005
O     1.043288    0.186354   -0.000007   -0.101339   -0.119987    0.000013
C     0.021746   -0.354957    0.000055   -0.063123    0.070993   -0.000008
H     0.608333   -1.505072    0.000143    1.937364   -0.054782   -0.000022
H    -1.208953    1.175682   -0.000039   -0.438450    0.103420   -0.000004
5
* Frequency(11) 1405.4778
O    -1.158111    0.194666    0.000038    0.054290    0.063626   -0.000005
O     1.042324    0.185212   -0.000006   -0.101339   -0.119987    0.000013
C     0.021145   -0.354282    0.000055   -0.063123    0.070993   -0.000008
H     0.626766   -1.505593    0.000143    1.937364   -0.054782   -0.000022
H    -1.213125    1.176665   -0.000039   -0.438450    0.103420   -0.000004
5
* Frequency(11) 1405.4778
O    -1.159646    0.192867    0.000038    0.054290    0.063626   -0.000005
O     1.045190    0.188606   -0.000007   -0.101339   -0.119987    0.000013
C     0.022931   -0.356290    0.000055   -0.063123    0.070993   -0.000008
H     0.571970   -1.504044    0.000143    1.937364   -0.054782   -0.000022
H    -1.200724    1.173740   -0.000039   -0.438450    0.103420   -0.000004
5
* Frequency(11) 1405.4778
O    -1.163067    0.188857    0.000039    0.054290    0.063626   -0.000005
O     1.051576    0.196167   -0.000008   -0.101339   -0.119987    0.000013
C     0.026908   -0.360764    0.000056   -0.063123    0.070993   -0.000008
H     0.449883   -1.500592    0.000145    1.937364   -0.054782   -0.000022
H    -1.173094    1.167223   -0.000038   -0.438450    0.103420   -0.000004
5
* Frequency(11) 1405.4778
O    -1.168003    0.183072    0.000039    0.054290    0.063626   -0.000005
O     1.060790    0.207077   -0.000009   -0.101339   -0.119987    0.000013
C     0.032648   -0.367218    0.000057   -0.063123    0.070993   -0.000008
H     0.273734   -1.495611    0.000147    1.937364   -0.054782   -0.000022
H    -1.133229    1.157820   -0.000038   -0.438450    0.103420   -0.000004
5
* Frequency(11) 1405.4778
O    -1.173920    0.176139    0.000040    0.054290    0.063626   -0.000005
O     1.071833    0.220152   -0.000010   -0.101339   -0.119987    0.000013
C     0.039526   -0.374955    0.000057   -0.063123    0.070993   -0.000008
H     0.062613   -1.489641    0.000149    1.937364   -0.054782   -0.000022
H    -1.085450    1.146550   -0.000037   -0.438450    0.103420   -0.000004
5
* Frequency(11) 1405.4778
O    -1.180175    0.168808    0.000040    0.054290    0.063626   -0.000005
O     1.083509    0.233977   -0.000012   -0.101339   -0.119987    0.000013
C     0.046799   -0.383134    0.000058   -0.063123    0.070993   -0.000008
H    -0.160603   -1.483329    0.000152    1.937364   -0.054782   -0.000022
H    -1.034933    1.134634   -0.000037   -0.438450    0.103420   -0.000004
5
* Frequency(11) 1405.4778
O    -1.186091    0.161874    0.000041    0.054290    0.063626   -0.000005
O     1.094552    0.247052   -0.000013   -0.101339   -0.119987    0.000013
C     0.053678   -0.390871    0.000059   -0.063123    0.070993   -0.000008
H    -0.371724   -1.477360    0.000154    1.937364   -0.054782   -0.000022
H    -0.987154    1.123364   -0.000036   -0.438450    0.103420   -0.000004
5
* Frequency(11) 1405.4778
O    -1.191027    0.156090    0.000041    0.054290    0.063626   -0.000005
O     1.103766    0.257961   -0.000014   -0.101339   -0.119987    0.000013
C     0.059417   -0.397326    0.000060   -0.063123    0.070993   -0.000008
H    -0.547873   -1.472379    0.000156    1.937364   -0.054782   -0.000022
H    -0.947289    1.113961   -0.000036   -0.438450    0.103420   -0.000004
5
* Frequency(11) 1405.4778
O    -1.194448    0.152080    0.000041    0.054290    0.063626   -0.000005
O     1.110152    0.265523   -0.000015   -0.101339   -0.119987    0.000013
C     0.063395   -0.401799    0.000061   -0.063123    0.070993   -0.000008
H    -0.669960   -1.468926    0.000157    1.937364   -0.054782   -0.000022
H    -0.919659    1.107444   -0.000036   -0.438450    0.103420   -0.000004
5
* Frequency(11) 1405.4778
O    -1.195984    0.150280    0.000042    0.054290    0.063626   -0.000005
O     1.113019    0.268916   -0.000015   -0.101339   -0.119987    0.000013
C     0.065180   -0.403807    0.000061   -0.063123    0.070993   -0.000008
H    -0.724756   -1.467377    0.000158    1.937364   -0.054782   -0.000022
H    -0.907258    1.104519   -0.000036   -0.438450    0.103420   -0.000004
5
* Frequency(11) 1405.4778
O    -1.195467    0.150886    0.000042    0.054290    0.063626   -0.000005
O     1.112055    0.267775   -0.000015   -0.101339   -0.119987    0.000013
C     0.064579   -0.403132    0.000061   -0.063123    0.070993   -0.000008
H    -0.706323   -1.467898    0.000158    1.937364   -0.054782   -0.000022
H    -0.911430    1.105503   -0.000036   -0.438450    0.103420   -0.000004
5
* Frequency(11) 1405.4778
O    -1.192955    0.153830    0.000041    0.054290    0.063626   -0.000005
O     1.107364    0.262222   -0.000015   -0.101339   -0.119987    0.000013
C     0.061658   -0.399846    0.000060   -0.063123    0.070993   -0.000008
H    -0.616658   -1.470434    0.000157    1.937364   -0.054782   -0.000022
H    -0.931722    1.110289   -0.000036   -0.438450    0.103420   -0.000004
5
* Frequency(11) 1405.4778
O    -1.188718    0.158795    0.000041    0.054290    0.063626   -0.000005
O     1.099456    0.252859   -0.000014   -0.101339   -0.119987    0.000013
C     0.056732   -0.394306    0.000060   -0.063123    0.070993   -0.000008
H    -0.465479   -1.474708    0.000155    1.937364   -0.054782   -0.000022
H    -0.965936    1.118359   -0.000036   -0.438450    0.103420   -0.000004
5
* Frequency(11) 1405.4778
O    -1.183217    0.165243    0.000040    0.054290    0.063626   -0.000005
O     1.089188    0.240700   -0.000012   -0.101339   -0.119987    0.000013
C     0.050336   -0.387113    0.000059   -0.063123    0.070993   -0.000008
H    -0.269166   -1.480260    0.000153    1.937364   -0.054782   -0.000022
H    -1.010364    1.128839   -0.000037   -0.438450    0.103420   -0.000004
5
* Frequency(11) 1405.4778
O    -1.177047    0.172473    0.000040    0.054290    0.063626   -0.000005
O     1.077671    0.227064   -0.000011   -0.101339   -0.119987    0.000013
C     0.043163   -0.379045    0.000058   -0.063123    0.070993   -0.000008
H    -0.048995   -1.486485    0.000150    1.937364   -0.054782   -0.000022
H    -1.060192    1.140592   -0.000037   -0.438450    0.103420   -0.000004
