5
* (null), Energy   -1000.0000000
O    -1.177047    0.172473    0.000040    0.038665   -0.228402    0.000018
O     1.077671    0.227064   -0.000011    0.055212   -0.084616    0.000007
C     0.043163   -0.379045    0.000058   -0.296102    0.414513   -0.000030
H    -0.048995   -1.486485    0.000150    0.212879    0.401142   -0.000022
H    -1.060192    1.140592   -0.000037    1.825357   -0.372116   -0.000011
5
* Frequency(10) 1313.9916
O    -1.172653    0.146517    0.000042    0.038665   -0.228402    0.000018
O     1.083946    0.217448   -0.000010    0.055212   -0.084616    0.000007
C     0.009512   -0.331937    0.000054   -0.296102    0.414513   -0.000030
H    -0.024802   -1.440898    0.000148    0.212879    0.401142   -0.000022
H    -0.852749    1.098303   -0.000038    1.825357   -0.372116   -0.000011
5
* Frequency(10) 1313.9916
O    -1.168735    0.123373    0.000044    0.038665   -0.228402    0.000018
O     1.089540    0.208874   -0.000009    0.055212   -0.084616    0.000007
C    -0.020492   -0.289935    0.000051   -0.296102    0.414513   -0.000030
H    -0.003231   -1.400250    0.000146    0.212879    0.401142   -0.000022
H    -0.667786    1.060597   -0.000039    1.825357   -0.372116   -0.000011
5
* Frequency(10) 1313.9916
O    -1.165718    0.105550    0.000045    0.038665   -0.228402    0.000018
O     1.093849    0.202271   -0.000009    0.055212   -0.084616    0.000007
C    -0.043598   -0.257589    0.000049   -0.296102    0.414513   -0.000030
H     0.013380   -1.368947    0.000144    0.212879    0.401142   -0.000022
H    -0.525347    1.031559   -0.000040    1.825357   -0.372116   -0.000011
5
* Frequency(10) 1313.9916
O    -1.163929    0.094979    0.000046    0.038665   -0.228402    0.000018
O     1.096404    0.198355   -0.000009    0.055212   -0.084616    0.000007
C    -0.057302   -0.238405    0.000048   -0.296102    0.414513   -0.000030
H     0.023233   -1.350382    0.000143    0.212879    0.401142   -0.000022
H    -0.440866    1.014337   -0.000041    1.825357   -0.372116   -0.000011
5
* Frequency(10) 1313.9916
O    -1.163561    0.092806    0.000046    0.038665   -0.228402    0.000018
O     1.096929    0.197550   -0.000009    0.055212   -0.084616    0.000007
C    -0.060119   -0.234461    0.000047   -0.296102    0.414513   -0.000030
H     0.025258   -1.346565    0.000143    0.212879    0.401142   -0.000022
H    -0.423499    1.010796   -0.000041    1.825357   -0.372116   -0.000011
5
* Frequency(10) 1313.9916
O    -1.164654    0.099266    0.000046    0.038665   -0.228402    0.000018
O     1.095368    0.199943   -0.000009    0.055212   -0.084616    0.000007
C    -0.051744   -0.246185    0.000048   -0.296102    0.414513   -0.000030
H     0.019237   -1.357911    0.000143    0.212879    0.401142   -0.000022
H    -0.475127    1.021321   -0.000041    1.825357   -0.372116   -0.000011
5
* Frequency(10) 1313.9916
O    -1.167091    0.113659    0.000045    0.038665   -0.228402    0.000018
O     1.091888    0.205276   -0.000009    0.055212   -0.084616    0.000007
C    -0.033085   -0.272306    0.000050   -0.296102    0.414513   -0.000030
H     0.005822   -1.383190    0.000145    0.212879    0.401142   -0.000022
H    -0.590156    1.044771   -0.000040    1.825357   -0.372116   -0.000011
5
* Frequency(10) 1313.9916
O    -1.170606    0.134426    0.000043    0.038665   -0.228402    0.000018
O     1.086868    0.212969   -0.000010    0.055212   -0.084616    0.000007
C    -0.006162   -0.309994    0.000053   -0.296102    0.414513   -0.000030
H    -0.013533   -1.419662    0.000147    0.212879    0.401142   -0.000022
H    -0.756121    1.078604   -0.000039    1.825357   -0.372116   -0.000011
5
* Frequency(10) 1313.9916
O    -1.174820    0.159315    0.000041    0.038665   -0.228402    0.000018
O     1.080852    0.222190   -0.000011    0.055212   -0.084616    0.000007
C     0.026105   -0.355165    0.000056   -0.296102    0.414513   -0.000030
H    -0.036731   -1.463376    0.000149    0.212879    0.401142   -0.000022
H    -0.955036    1.119155   -0.000038    1.825357   -0.372116   -0.000011
5
* Frequency(10) 1313.9916
O    -1.179275    0.185631    0.000039    0.038665   -0.228402    0.000018
O     1.074490    0.231939   -0.000011    0.055212   -0.084616    0.000007
C     0.060220   -0.402924    0.000060   -0.296102    0.414513   -0.000030
H    -0.061258   -1.509594    0.000152    0.212879    0.401142   -0.000022
H    -1.165347    1.162029   -0.000037    1.825357   -0.372116   -0.000011
5
* Frequency(10) 1313.9916
O    -1.183488    0.210521    0.000037    0.038665   -0.228402    0.000018
O     1.068474    0.241160   -0.000012    0.055212   -0.084616    0.000007
C     0.092488   -0.448095    0.000063   -0.296102    0.414513   -0.000030
H    -0.084457   -1.553308    0.000154    0.212879    0.401142   -0.000022
H    -1.364263    1.202580   -0.000035    1.825357   -0.372116   -0.000011
5
* Frequency(10) 1313.9916
O    -1.187004    0.231288    0.000035    0.038665   -0.228402    0.000018
O     1.063454    0.248853   -0.000013    0.055212   -0.084616    0.000007
C     0.119410   -0.485783    0.000066   -0.296102    0.414513   -0.000030
H    -0.103812   -1.589781    0.000156    0.212879    0.401142   -0.000022
H    -1.530227    1.236413   -0.000034    1.825357   -0.372116   -0.000011
5
* Frequency(10) 1313.9916
O    -1.189440    0.245681    0.000034    0.038665   -0.228402    0.000018
O     1.059975    0.254186   -0.000013    0.055212   -0.084616    0.000007
C     0.138069   -0.511905    0.000068   -0.296102    0.414513   -0.000030
H    -0.117227   -1.615059    0.000157    0.212879    0.401142   -0.000022
H    -1.645256    1.259863   -0.000034    1.825357   -0.372116   -0.000011
5
* Frequency(10) 1313.9916
O    -1.190534    0.252141    0.000034    0.038665   -0.228402    0.000018
O     1.058413    0.256579   -0.000013    0.055212   -0.084616    0.000007
C     0.146444   -0.523629    0.000068   -0.296102    0.414513   -0.000030
H    -0.123248   -1.626405    0.000158    0.212879    0.401142   -0.000022
H    -1.696885    1.270388   -0.000033    1.825357   -0.372116   -0.000011
5
* Frequency(10) 1313.9916
O    -1.190166    0.249968    0.000034    0.038665   -0.228402    0.000018
O     1.058938    0.255774   -0.000013    0.055212   -0.084616    0.000007
C     0.143627   -0.519685    0.000068   -0.296102    0.414513   -0.000030
H    -0.121223   -1.622589    0.000158    0.212879    0.401142   -0.000022
H    -1.679517    1.266847   -0.000034    1.825357   -0.372116   -0.000011
5
* Frequency(10) 1313.9916
O    -1.188376    0.239397    0.000035    0.038665   -0.228402    0.000018
O     1.061494    0.251858   -0.000013    0.055212   -0.084616    0.000007
C     0.129923   -0.500500    0.000067   -0.296102    0.414513   -0.000030
H    -0.111370   -1.604023    0.000157    0.212879    0.401142   -0.000022
H    -1.595036    1.249625   -0.000034    1.825357   -0.372116   -0.000011
5
* Frequency(10) 1313.9916
O    -1.185359    0.221574    0.000036    0.038665   -0.228402    0.000018
O     1.065802    0.245255   -0.000012    0.055212   -0.084616    0.000007
C     0.106817   -0.468154    0.000064   -0.296102    0.414513   -0.000030
H    -0.094758   -1.572720    0.000155    0.212879    0.401142   -0.000022
H    -1.452597    1.220588   -0.000035    1.825357   -0.372116   -0.000011
5
* Frequency(10) 1313.9916
O    -1.181441    0.198430    0.000038    0.038665   -0.228402    0.000018
O     1.071397    0.236681   -0.000012    0.055212   -0.084616    0.000007
C     0.076813   -0.426152    0.000061   -0.296102    0.414513   -0.000030
H    -0.073187   -1.532073    0.000153    0.212879    0.401142   -0.000022
H    -1.267634    1.182881   -0.000036    1.825357   -0.372116   -0.000011
5
* Frequency(10) 1313.9916
O    -1.177047    0.172473    0.000040    0.038665   -0.228402    0.000018
O     1.077671    0.227064   -0.000011    0.055212   -0.084616    0.000007
C     0.043163   -0.379045    0.000058   -0.296102    0.414513   -0.000030
H    -0.048995   -1.486485    0.000150    0.212879    0.401142   -0.000022
H    -1.060192    1.140592   -0.000037    1.825357   -0.372116   -0.000011
