5
* (null), Energy   -1000.0000000
O    -1.177047    0.172473    0.000040   -0.000008    0.000008    0.071411
O     1.077671    0.227064   -0.000011    0.000004    0.000010    0.113558
C     0.043163   -0.379045    0.000058    0.000001   -0.000040   -0.431359
H    -0.048995   -1.486485    0.000150    0.000031    0.000151    1.928760
H    -1.060192    1.140592   -0.000037    0.000025    0.000023    0.275352
5
* Frequency(8) 1052.9546
O    -1.177048    0.172474    0.008155   -0.000008    0.000008    0.071411
O     1.077672    0.227066    0.012894    0.000004    0.000010    0.113558
C     0.043163   -0.379049   -0.048964    0.000001   -0.000040   -0.431359
H    -0.048991   -1.486468    0.219344    0.000031    0.000151    1.928760
H    -1.060189    1.140595    0.031255    0.000025    0.000023    0.275352
5
* Frequency(8) 1052.9546
O    -1.177049    0.172475    0.015391   -0.000008    0.000008    0.071411
O     1.077672    0.227067    0.024401    0.000004    0.000010    0.113558
C     0.043163   -0.379053   -0.092673    0.000001   -0.000040   -0.431359
H    -0.048988   -1.486453    0.414784    0.000031    0.000151    1.928760
H    -1.060186    1.140597    0.059157    0.000025    0.000023    0.275352
5
* Frequency(8) 1052.9546
O    -1.177050    0.172476    0.020964   -0.000008    0.000008    0.071411
O     1.077672    0.227067    0.033262    0.000004    0.000010    0.113558
C     0.043163   -0.379056   -0.126334    0.000001   -0.000040   -0.431359
H    -0.048986   -1.486441    0.565293    0.000031    0.000151    1.928760
H    -1.060184    1.140599    0.080643    0.000025    0.000023    0.275352
5
* Frequency(8) 1052.9546
O    -1.177050    0.172476    0.024269   -0.000008    0.000008    0.071411
O     1.077672    0.227068    0.038518    0.000004    0.000010    0.113558
C     0.043163   -0.379058   -0.146298    0.000001   -0.000040   -0.431359
H    -0.048984   -1.486434    0.654560    0.000031    0.000151    1.928760
H    -1.060183    1.140600    0.093387    0.000025    0.000023    0.275352
5
* Frequency(8) 1052.9546
O    -1.177050    0.172476    0.024948   -0.000008    0.000008    0.071411
O     1.077672    0.227068    0.039599    0.000004    0.000010    0.113558
C     0.043163   -0.379058   -0.150402    0.000001   -0.000040   -0.431359
H    -0.048984   -1.486432    0.672911    0.000031    0.000151    1.928760
H    -1.060183    1.140600    0.096007    0.000025    0.000023    0.275352
5
* Frequency(8) 1052.9546
O    -1.177050    0.172476    0.022928   -0.000008    0.000008    0.071411
O     1.077672    0.227068    0.036387    0.000004    0.000010    0.113558
C     0.043163   -0.379057   -0.138202    0.000001   -0.000040   -0.431359
H    -0.048985   -1.486437    0.618358    0.000031    0.000151    1.928760
H    -1.060184    1.140600    0.088219    0.000025    0.000023    0.275352
5
* Frequency(8) 1052.9546
O    -1.177049    0.172475    0.018428   -0.000008    0.000008    0.071411
O     1.077672    0.227067    0.029231    0.000004    0.000010    0.113558
C     0.043163   -0.379055   -0.111018    0.000001   -0.000040   -0.431359
H    -0.048987   -1.486446    0.496813    0.000031    0.000151    1.928760
H    -1.060185    1.140598    0.070867    0.000025    0.000023    0.275352
5
* Frequency(8) 1052.9546
O    -1.177049    0.172475    0.011936   -0.000008    0.000008    0.071411
O     1.077672    0.227066    0.018906    0.000004    0.000010    0.113558
C     0.043163   -0.379051   -0.071799    0.000001   -0.000040   -0.431359
H    -0.048990   -1.486460    0.321446    0.000031    0.000151    1.928760
H    -1.060188    1.140596    0.045831    0.000025    0.000023    0.275352
5
* Frequency(8) 1052.9546
O    -1.177048    0.172474    0.004154   -0.000008    0.000008    0.071411
O     1.077671    0.227065    0.006531    0.000004    0.000010    0.113558
C     0.043163   -0.379047   -0.024792    0.000001   -0.000040   -0.431359
H    -0.048993   -1.486477    0.111263    0.000031    0.000151    1.928760
H    -1.060190    1.140593    0.015825    0.000025    0.000023    0.275352
5
* Frequency(8) 1052.9546
O    -1.177047    0.172473   -0.004074   -0.000008    0.000008    0.071411
O     1.077671    0.227064   -0.006553    0.000004    0.000010    0.113558
C     0.043163   -0.379042    0.024908    0.000001   -0.000040   -0.431359
H    -0.048997   -1.486494   -0.110962    0.000031    0.000151    1.928760
H    -1.060193    1.140591   -0.015900    0.000025    0.000023    0.275352
5
* Frequency(8) 1052.9546
O    -1.177046    0.172472   -0.011856   -0.000008    0.000008    0.071411
O     1.077670    0.227063   -0.018927    0.000004    0.000010    0.113558
C     0.043162   -0.379038    0.071914    0.000001   -0.000040   -0.431359
H    -0.049000   -1.486510   -0.321146    0.000031    0.000151    1.928760
H    -1.060196    1.140588   -0.045906    0.000025    0.000023    0.275352
5
* Frequency(8) 1052.9546
O    -1.177045    0.172471   -0.018349   -0.000008    0.000008    0.071411
O     1.077670    0.227062   -0.029252    0.000004    0.000010    0.113558
C     0.043162   -0.379034    0.111134    0.000001   -0.000040   -0.431359
H    -0.049003   -1.486524   -0.496512    0.000031    0.000151    1.928760
H    -1.060198    1.140586   -0.070941    0.000025    0.000023    0.275352
5
* Frequency(8) 1052.9546
O    -1.177045    0.172471   -0.022849   -0.000008    0.000008    0.071411
O     1.077670    0.227061   -0.036408    0.000004    0.000010    0.113558
C     0.043162   -0.379032    0.138317    0.000001   -0.000040   -0.431359
H    -0.049005   -1.486534   -0.618057    0.000031    0.000151    1.928760
H    -1.060200    1.140585   -0.088293    0.000025    0.000023    0.275352
5
* Frequency(8) 1052.9546
O    -1.177044    0.172470   -0.024868   -0.000008    0.000008    0.071411
O     1.077670    0.227061   -0.039620    0.000004    0.000010    0.113558
C     0.043162   -0.379031    0.150518    0.000001   -0.000040   -0.431359
H    -0.049006   -1.486538   -0.672610    0.000031    0.000151    1.928760
H    -1.060200    1.140584   -0.096081    0.000025    0.000023    0.275352
5
* Frequency(8) 1052.9546
O    -1.177044    0.172470   -0.024189   -0.000008    0.000008    0.071411
O     1.077670    0.227061   -0.038540    0.000004    0.000010    0.113558
C     0.043162   -0.379031    0.146414    0.000001   -0.000040   -0.431359
H    -0.049005   -1.486537   -0.654259    0.000031    0.000151    1.928760
H    -1.060200    1.140584   -0.093461    0.000025    0.000023    0.275352
5
* Frequency(8) 1052.9546
O    -1.177045    0.172471   -0.020884   -0.000008    0.000008    0.071411
O     1.077670    0.227061   -0.033284    0.000004    0.000010    0.113558
C     0.043162   -0.379033    0.126450    0.000001   -0.000040   -0.431359
H    -0.049004   -1.486530   -0.564992    0.000031    0.000151    1.928760
H    -1.060199    1.140585   -0.080718    0.000025    0.000023    0.275352
5
* Frequency(8) 1052.9546
O    -1.177045    0.172471   -0.015312   -0.000008    0.000008    0.071411
O     1.077670    0.227062   -0.024423    0.000004    0.000010    0.113558
C     0.043162   -0.379036    0.092789    0.000001   -0.000040   -0.431359
H    -0.049002   -1.486518   -0.414484    0.000031    0.000151    1.928760
H    -1.060197    1.140587   -0.059231    0.000025    0.000023    0.275352
5
* Frequency(8) 1052.9546
O    -1.177046    0.172472   -0.008076   -0.000008    0.000008    0.071411
O     1.077671    0.227063   -0.012916    0.000004    0.000010    0.113558
C     0.043162   -0.379040    0.049080    0.000001   -0.000040   -0.431359
H    -0.048998   -1.486502   -0.219043    0.000031    0.000151    1.928760
H    -1.060194    1.140589   -0.031330    0.000025    0.000023    0.275352
5
* Frequency(8) 1052.9546
O    -1.177047    0.172473    0.000040   -0.000008    0.000008    0.071411
O     1.077671    0.227064   -0.000011    0.000004    0.000010    0.113558
C     0.043163   -0.379045    0.000058    0.000001   -0.000040   -0.431359
H    -0.048995   -1.486485    0.000150    0.000031    0.000151    1.928760
H    -1.060192    1.140592   -0.000037    0.000025    0.000023    0.275352
