3
* (null), Energy   -1000.0000000
O     0.000000    0.000000    0.090697   -0.000001    0.000000   -0.100988
H    -0.756716    0.000000   -0.511349    1.163018    0.000000    0.801446
H     0.756716    0.000000   -0.511349   -1.163004    0.000000    0.801435
3
* Frequency(7) 3786.7241
O    -0.000000    0.000000    0.079221   -0.000001    0.000000   -0.100988
H    -0.624545    0.000000   -0.420268    1.163018    0.000000    0.801446
H     0.624547    0.000000   -0.420270   -1.163004    0.000000    0.801435
3
* Frequency(6) 1640.8512
O     0.000000    0.000000    0.106658   -0.000000    0.000000    0.140442
H    -0.658433    0.000000   -0.638011    0.864824    0.000000   -1.114548
H     0.658433    0.000000   -0.638011   -0.864824    0.000000   -1.114548
3
* Frequency(8) 3880.6112
O    -0.015809    0.000000    0.090697   -0.139113    0.000000    0.000001
H    -0.631253    0.000000   -0.411529    1.103996    0.000000    0.878345
H     0.882181    0.000000   -0.611169    1.104012    0.000000   -0.878355
3
